LAMMPS coords for probe dye molecule 

22	atoms
24	bonds
28	angles
6	dihedrals
2	impropers
7	atom types
3	bond types
3	angle types
2	dihedral types
1	improper types
-10.0 20.0	xlo xhi
-10.0 20.0	ylo yhi
-10.0 20.0	zlo zhi

Masses

1 15.035
2 14.027
3 14.027
4 13.019
5 12.011
6 12.011
7 13.019

Atoms

1 	1	1	-7.25101	 -1.18333	 -0.63226
2 	1	2	-6.16935	 -0.24178 	-1.15371
3 	1	2	-4.98568	 -0.16662 	-0.18246
4 	1	2	-3.90140	 0.78033	 -0.70995
5 	1	2	-2.71747	 0.85690	 0.26150
6 	1	2	-1.63449	 1.80650 	-0.26346
7 	1	3	-0.43866	 1.86273	 0.70562
8 	1	4	0.66448 	2.75912 	 0.19191
9 	1	5	0.71665 	4.13034		 0.00408
10	1	6	-0.41424	 5.10989 	 0.34516
11	1	6	-0.34169	 6.45048 	-0.12531
12	1	7	0.81745 	6.98265 	-0.90382
13	1	6	1.98049 	6.06493 	-1.08250
14	1	6	1.97253 	4.71723 	-0.64363
15	1	7	3.11643 	6.60328 	-1.71380
16	1	7	-1.37874	 7.36213 	0.14515
17	1	7	-2.48199	 6.98506 	0.89422
18	1	7	-2.56287	 5.69696 	1.39272
19	1	7	-1.55084	 4.77300 	1.13085
20	1	7	4.25597 	5.83591		-1.90801
21	1	7	4.28228 	4.52066 	-1.47380
22	1	7	3.16647 	3.95921 	-0.85195

Bonds

1	1	1	2
2	1	2	3
3	1	3	4
4	1	4	5
5	1	5	6
6	1	6	7
7	1	7	8
8	2	8	9
9	3	9	10
10	3	10	11
11	3	11	12
12	3	12	13
13	3	13	14
14	3	14	9
15	3	11	16
16	3	16	17
17	3	17	18
18	3	18	19
19	3	19	10
20	3	13	15
21	3	15	20
22	3	20	21
23	3	21	22
24	3	22	14

Angles

1	1	1	2	3
2	1	2	3	4
3	1	3	4	5
4	1	4	5	6
5	1	6	7	8
6	2	7	8	9
7	3	8	9	10
8	3	8	9	14
9	3	9	10	11
10	3	10	11	12
11	3	11	12	13
12	3	12	13	14
13	3	13	14	9
14	3	10	11	16
15	3	11	16	17
16	3	16	17	18
17	3	17	18	19
18	3	18	19	10
19	3	14	13	15
20	3	13	15	20
21	3	15	20	21
22	3	20	21	22
23	3	21	22	14
24	3	22	14	9
25	3	14	9	10
26	3	9	10	19
27	3	15	13	12
28	3	12	11	16

Dihedrals

1	1	1	2	3	4
2	1	2	3	4	5
3	1	3	4	5	6
4	1	4	5	6	7
5	1	5	6	7	8
6	2	6	7	8	9

Impropers

1	1	7	8	9	10
2	1	7	8	9	14
